t 2.5e-05 /NodeList/0/DeviceList/1/$ns3::WifiNetDevice/Phy/State/Tx ns3::WifiMacHeader (MGT_BEACON ToDS=0, FromDS=0, MoreFrag=0, Retry=0, MoreData=0 Duration/ID=0us, DA=ff:ff:ff:ff:ff:ff, SA=00:00:00:00:00:09, BSSID=00:00:00:00:00:09, FragNumber=0, SeqNumber=0) ns3::MgtProbeResponseHeader (ssid=ns-3-ssid1, rates=[*6mbs 9mbs 12mbs 18mbs 24mbs 36mbs 48mbs 54mbs], HT Capabilities=0|0|0|0) ns3::WifiMacTrailer ()
t 2.5e-05 /NodeList/1/DeviceList/1/$ns3::WifiNetDevice/Phy/State/Tx ns3::WifiMacHeader (MGT_BEACON ToDS=0, FromDS=0, MoreFrag=0, Retry=0, MoreData=0 Duration/ID=0us, DA=ff:ff:ff:ff:ff:ff, SA=00:00:00:00:00:10, BSSID=00:00:00:00:00:10, FragNumber=0, SeqNumber=0) ns3::MgtProbeResponseHeader (ssid=ns-3-ssid2, rates=[*6mbs 9mbs 12mbs 18mbs 24mbs 36mbs 48mbs 54mbs], HT Capabilities=0|0|0|0) ns3::WifiMacTrailer ()
r 0.000133033 /NodeList/2/DeviceList/0/$ns3::WifiNetDevice/Phy/State/RxOk ns3::WifiMacHeader (MGT_BEACON ToDS=0, FromDS=0, MoreFrag=0, Retry=0, MoreData=0 Duration/ID=0us, DA=ff:ff:ff:ff:ff:ff, SA=00:00:00:00:00:09, BSSID=00:00:00:00:00:09, FragNumber=0, SeqNumber=0) ns3::MgtProbeResponseHeader (ssid=ns-3-ssid1, rates=[*6mbs 9mbs 12mbs 18mbs 24mbs 36mbs 48mbs 54mbs], HT Capabilities=0|0|0|0) ns3::WifiMacTrailer ()
r 0.000133033 /NodeList/3/DeviceList/0/$ns3::WifiNetDevice/Phy/State/RxOk ns3::WifiMacHeader (MGT_BEACON ToDS=0, FromDS=0, MoreFrag=0, Retry=0, MoreData=0 Duration/ID=0us, DA=ff:ff:ff:ff:ff:ff, SA=00:00:00:00:00:09, BSSID=00:00:00:00:00:09, FragNumber=0, SeqNumber=0) ns3::MgtProbeResponseHeader (ssid=ns-3-ssid1, rates=[*6mbs 9mbs 12mbs 18mbs 24mbs 36mbs 48mbs 54mbs], HT Capabilities=0|0|0|0) ns3::WifiMacTrailer ()
r 0.000133033 /NodeList/4/DeviceList/0/$ns3::WifiNetDevice/Phy/State/RxOk ns3::WifiMacHeader (MGT_BEACON ToDS=0, FromDS=0, MoreFrag=0, Retry=0, MoreData=0 Duration/ID=0us, DA=ff:ff:ff:ff:ff:ff, SA=00:00:00:00:00:09, BSSID=00:00:00:00:00:09, FragNumber=0, SeqNumber=0) ns3::MgtProbeResponseHeader (ssid=ns-3-ssid1, rates=[*6mbs 9mbs 12mbs 18mbs 24mbs 36mbs 48mbs 54mbs], HT Capabilities=0|0|0|0) ns3::WifiMacTrailer ()
r 0.000133033 /NodeList/5/DeviceList/0/$ns3::WifiNetDevice/Phy/State/RxOk ns3::WifiMacHeader (MGT_BEACON ToDS=0, FromDS=0, MoreFrag=0, Retry=0, MoreData=0 Duration/ID=0us, DA=ff:ff:ff:ff:ff:ff, SA=00:00:00:00:00:09, BSSID=00:00:00:00:00:09, FragNumber=0, SeqNumber=0) ns3::MgtProbeResponseHeader (ssid=ns-3-ssid1, rates=[*6mbs 9mbs 12mbs 18mbs 24mbs 36mbs 48mbs 54mbs], HT Capabilities=0|0|0|0) ns3::WifiMacTrailer ()
r 0.000133033 /NodeList/6/DeviceList/0/$ns3::WifiNetDevice/Phy/State/RxOk ns3::WifiMacHeader (MGT_BEACON ToDS=0, FromDS=0, MoreFrag=0, Retry=0, MoreData=0 Duration/ID=0us, DA=ff:ff:ff:ff:ff:ff, SA=00:00:00:00:00:09, BSSID=00:00:00:00:00:09, FragNumber=0, SeqNumber=0) ns3::MgtProbeResponseHeader (ssid=ns-3-ssid1, rates=[*6mbs 9mbs 12mbs 18mbs 24mbs 36mbs 48mbs 54mbs], HT Capabilities=0|0|0|0) ns3::WifiMacTrailer ()
r 0.000133033 /NodeList/7/DeviceList/0/$ns3::WifiNetDevice/Phy/State/RxOk ns3::WifiMacHeader (MGT_BEACON ToDS=0, FromDS=0, MoreFrag=0, Retry=0, MoreData=0 Duration/ID=0us, DA=ff:ff:ff:ff:ff:ff, SA=00:00:00:00:00:09, BSSID=00:00:00:00:00:09, FragNumber=0, SeqNumber=0) ns3::MgtProbeResponseHeader (ssid=ns-3-ssid1, rates=[*6mbs 9mbs 12mbs 18mbs 24mbs 36mbs 48mbs 54mbs], HT Capabilities=0|0|0|0) ns3::WifiMacTrailer ()
r 0.000133033 /NodeList/8/DeviceList/0/$ns3::WifiNetDevice/Phy/State/RxOk ns3::WifiMacHeader (MGT_BEACON ToDS=0, FromDS=0, MoreFrag=0, Retry=0, MoreData=0 Duration/ID=0us, DA=ff:ff:ff:ff:ff:ff, SA=00:00:00:00:00:10, BSSID=00:00:00:00:00:10, FragNumber=0, SeqNumber=0) ns3::MgtProbeResponseHeader (ssid=ns-3-ssid2, rates=[*6mbs 9mbs 12mbs 18mbs 24mbs 36mbs 48mbs 54mbs], HT Capabilities=0|0|0|0) ns3::WifiMacTrailer ()
r 0.000133033 /NodeList/9/DeviceList/0/$ns3::WifiNetDevice/Phy/State/RxOk ns3::WifiMacHeader (MGT_BEACON ToDS=0, FromDS=0, MoreFrag=0, Retry=0, MoreData=0 Duration/ID=0us, DA=ff:ff:ff:ff:ff:ff, SA=00:00:00:00:00:10, BSSID=00:00:00:00:00:10, FragNumber=0, SeqNumber=0) ns3::MgtProbeResponseHeader (ssid=ns-3-ssid2, rates=[*6mbs 9mbs 12mbs 18mbs 24mbs 36mbs 48mbs 54mbs], HT Capabilities=0|0|0|0) ns3::WifiMacTrailer ()
r 0.000133033 /NodeList/10/DeviceList/0/$ns3::WifiNetDevice/Phy/State/RxOk ns3::WifiMacHeader (MGT_BEACON ToDS=0, FromDS=0, MoreFrag=0, Retry=0, MoreData=0 Duration/ID=0us, DA=ff:ff:ff:ff:ff:ff, SA=00:00:00:00:00:10, BSSID=00:00:00:00:00:10, FragNumber=0, SeqNumber=0) ns3::MgtProbeResponseHeader (ssid=ns-3-ssid2, rates=[*6mbs 9mbs 12mbs 18mbs 24mbs 36mbs 48mbs 54mbs], HT Capabilities=0|0|0|0) ns3::WifiMacTrailer ()
r 0.000133033 /NodeList/11/DeviceList/0/$ns3::WifiNetDevice/Phy/State/RxOk ns3::WifiMacHeader (MGT_BEACON ToDS=0, FromDS=0, MoreFrag=0, Retry=0, MoreData=0 Duration/ID=0us, DA=ff:ff:ff:ff:ff:ff, SA=00:00:00:00:00:10, BSSID=00:00:00:00:00:10, FragNumber=0, SeqNumber=0) ns3::MgtProbeResponseHeader (ssid=ns-3-ssid2, rates=[*6mbs 9mbs 12mbs 18mbs 24mbs 36mbs 48mbs 54mbs], HT Capabilities=0|0|0|0) ns3::WifiMacTrailer ()
r 0.000133033 /NodeList/12/DeviceList/0/$ns3::WifiNetDevice/Phy/State/RxOk ns3::WifiMacHeader (MGT_BEACON ToDS=0, FromDS=0, MoreFrag=0, Retry=0, MoreData=0 Duration/ID=0us, DA=ff:ff:ff:ff:ff:ff, SA=00:00:00:00:00:10, BSSID=00:00:00:00:00:10, FragNumber=0, SeqNumber=0) ns3::MgtProbeResponseHeader (ssid=ns-3-ssid2, rates=[*6mbs 9mbs 12mbs 18mbs 24mbs 36mbs 48mbs 54mbs], HT Capabilities=0|0|0|0) ns3::WifiMacTrailer ()
r 0.000133033 /NodeList/13/DeviceList/0/$ns3::WifiNetDevice/Phy/State/RxOk ns3::WifiMacHeader (MGT_BEACON ToDS=0, FromDS=0, MoreFrag=0, Retry=0, MoreData=0 Duration/ID=0us, DA=ff:ff:ff:ff:ff:ff, SA=00:00:00:00:00:10, BSSID=00:00:00:00:00:10, FragNumber=0, SeqNumber=0) ns3::MgtProbeResponseHeader (ssid=ns-3-ssid2, rates=[*6mbs 9mbs 12mbs 18mbs 24mbs 36mbs 48mbs 54mbs], HT Capabilities=0|0|0|0) ns3::WifiMacTrailer ()
t 0.000167033 /NodeList/10/DeviceList/0/$ns3::WifiNetDevice/Phy/State/Tx ns3::WifiMacHeader (MGT_ASSOCIATION_REQUEST ToDS=0, FromDS=0, MoreFrag=0, Retry=0, MoreData=0 Duration/ID=60us, DA=00:00:00:00:00:10, SA=00:00:00:00:00:0c, BSSID=00:00:00:00:00:10, FragNumber=0, SeqNumber=0) ns3::MgtAssocRequestHeader (ssid=ns-3-ssid2, rates=[6mbs 9mbs 12mbs 18mbs 24mbs 36mbs 48mbs 54mbs], HT Capabilities=0|0|0|0) ns3::WifiMacTrailer ()
t 0.000221033 /NodeList/4/DeviceList/0/$ns3::WifiNetDevice/Phy/State/Tx ns3::WifiMacHeader (MGT_ASSOCIATION_REQUEST ToDS=0, FromDS=0, MoreFrag=0, Retry=0, MoreData=0 Duration/ID=60us, DA=00:00:00:00:00:09, SA=00:00:00:00:00:05, BSSID=00:00:00:00:00:09, FragNumber=0, SeqNumber=0) ns3::MgtAssocRequestHeader (ssid=ns-3-ssid1, rates=[6mbs 9mbs 12mbs 18mbs 24mbs 36mbs 48mbs 54mbs], HT Capabilities=0|0|0|0) ns3::WifiMacTrailer ()
r 0.000263066 /NodeList/8/DeviceList/0/$ns3::WifiNetDevice/Phy/State/RxOk ns3::WifiMacHeader (MGT_ASSOCIATION_REQUEST ToDS=0, FromDS=0, MoreFrag=0, Retry=0, MoreData=0 Duration/ID=60us, DA=00:00:00:00:00:10, SA=00:00:00:00:00:0c, BSSID=00:00:00:00:00:10, FragNumber=0, SeqNumber=0) ns3::MgtAssocRequestHeader (ssid=ns-3-ssid2, rates=[6mbs 9mbs 12mbs 18mbs 24mbs 36mbs 48mbs 54mbs], HT Capabilities=0|0|0|0) ns3::WifiMacTrailer ()
r 0.000263066 /NodeList/12/DeviceList/0/$ns3::WifiNetDevice/Phy/State/RxOk ns3::WifiMacHeader (MGT_ASSOCIATION_REQUEST ToDS=0, FromDS=0, MoreFrag=0, Retry=0, MoreData=0 Duration/ID=60us, DA=00:00:00:00:00:10, SA=00:00:00:00:00:0c, BSSID=00:00:00:00:00:10, FragNumber=0, SeqNumber=0) ns3::MgtAssocRequestHeader (ssid=ns-3-ssid2, rates=[6mbs 9mbs 12mbs 18mbs 24mbs 36mbs 48mbs 54mbs], HT Capabilities=0|0|0|0) ns3::WifiMacTrailer ()
r 0.000263066 /NodeList/1/DeviceList/1/$ns3::WifiNetDevice/Phy/State/RxOk ns3::WifiMacHeader (MGT_ASSOCIATION_REQUEST ToDS=0, FromDS=0, MoreFrag=0, Retry=0, MoreData=0 Duration/ID=60us, DA=00:00:00:00:00:10, SA=00:00:00:00:00:0c, BSSID=00:00:00:00:00:10, FragNumber=0, SeqNumber=0) ns3::MgtAssocRequestHeader (ssid=ns-3-ssid2, rates=[6mbs 9mbs 12mbs 18mbs 24mbs 36mbs 48mbs 54mbs], HT Capabilities=0|0|0|0) ns3::WifiMacTrailer ()
r 0.00026309 /NodeList/9/DeviceList/0/$ns3::WifiNetDevice/Phy/State/RxOk ns3::WifiMacHeader (MGT_ASSOCIATION_REQUEST ToDS=0, FromDS=0, MoreFrag=0, Retry=0, MoreData=0 Duration/ID=60us, DA=00:00:00:00:00:10, SA=00:00:00:00:00:0c, BSSID=00:00:00:00:00:10, FragNumber=0, SeqNumber=0) ns3::MgtAssocRequestHeader (ssid=ns-3-ssid2, rates=[6mbs 9mbs 12mbs 18mbs 24mbs 36mbs 48mbs 54mbs], HT Capabilities=0|0|0|0) ns3::WifiMacTrailer ()
r 0.00026309 /NodeList/13/DeviceList/0/$ns3::WifiNetDevice/Phy/State/RxOk ns3::WifiMacHeader (MGT_ASSOCIATION_REQUEST ToDS=0, FromDS=0, MoreFrag=0, Retry=0, MoreData=0 Duration/ID=60us, DA=00:00:00:00:00:10, SA=00:00:00:00:00:0c, BSSID=00:00:00:00:00:10, FragNumber=0, SeqNumber=0) ns3::MgtAssocRequestHeader (ssid=ns-3-ssid2, rates=[6mbs 9mbs 12mbs 18mbs 24mbs 36mbs 48mbs 54mbs], HT Capabilities=0|0|0|0) ns3::WifiMacTrailer ()
r 0.000263099 /NodeList/11/DeviceList/0/$ns3::WifiNetDevice/Phy/State/RxOk ns3::WifiMacHeader (MGT_ASSOCIATION_REQUEST ToDS=0, FromDS=0, MoreFrag=0, Retry=0, MoreData=0 Duration/ID=60us, DA=00:00:00:00:00:10, SA=00:00:00:00:00:0c, BSSID=00:00:00:00:00:10, FragNumber=0, SeqNumber=0) ns3::MgtAssocRequestHeader (ssid=ns-3-ssid2, rates=[6mbs 9mbs 12mbs 18mbs 24mbs 36mbs 48mbs 54mbs], HT Capabilities=0|0|0|0) ns3::WifiMacTrailer ()
t 0.000279066 /NodeList/1/DeviceList/1/$ns3::WifiNetDevice/Phy/State/Tx ns3::WifiMacHeader (CTL_ACK Duration/ID=0us, RA=00:00:00:00:00:0c) ns3::WifiMacTrailer ()
r 0.000317066 /NodeList/2/DeviceList/0/$ns3::WifiNetDevice/Phy/State/RxOk ns3::WifiMacHeader (MGT_ASSOCIATION_REQUEST ToDS=0, FromDS=0, MoreFrag=0, Retry=0, MoreData=0 Duration/ID=60us, DA=00:00:00:00:00:09, SA=00:00:00:00:00:05, BSSID=00:00:00:00:00:09, FragNumber=0, SeqNumber=0) ns3::MgtAssocRequestHeader (ssid=ns-3-ssid1, rates=[6mbs 9mbs 12mbs 18mbs 24mbs 36mbs 48mbs 54mbs], HT Capabilities=0|0|0|0) ns3::WifiMacTrailer ()
r 0.000317066 /NodeList/6/DeviceList/0/$ns3::WifiNetDevice/Phy/State/RxOk ns3::WifiMacHeader (MGT_ASSOCIATION_REQUEST ToDS=0, FromDS=0, MoreFrag=0, Retry=0, MoreData=0 Duration/ID=60us, DA=00:00:00:00:00:09, SA=00:00:00:00:00:05, BSSID=00:00:00:00:00:09, FragNumber=0, SeqNumber=0) ns3::MgtAssocRequestHeader (ssid=ns-3-ssid1, rates=[6mbs 9mbs 12mbs 18mbs 24mbs 36mbs 48mbs 54mbs], HT Capabilities=0|0|0|0) ns3::WifiMacTrailer ()
r 0.000317066 /NodeList/0/DeviceList/1/$ns3::WifiNetDevice/Phy/State/RxOk ns3::WifiMacHeader (MGT_ASSOCIATION_REQUEST ToDS=0, FromDS=0, MoreFrag=0, Retry=0, MoreData=0 Duration/ID=60us, DA=00:00:00:00:00:09, SA=00:00:00:00:00:05, BSSID=00:00:00:00:00:09, FragNumber=0, SeqNumber=0) ns3::MgtAssocRequestHeader (ssid=ns-3-ssid1, rates=[6mbs 9mbs 12mbs 18mbs 24mbs 36mbs 48mbs 54mbs], HT Capabilities=0|0|0|0) ns3::WifiMacTrailer ()
r 0.00031709 /NodeList/3/DeviceList/0/$ns3::WifiNetDevice/Phy/State/RxOk ns3::WifiMacHeader (MGT_ASSOCIATION_REQUEST ToDS=0, FromDS=0, MoreFrag=0, Retry=0, MoreData=0 Duration/ID=60us, DA=00:00:00:00:00:09, SA=00:00:00:00:00:05, BSSID=00:00:00:00:00:09, FragNumber=0, SeqNumber=0) ns3::MgtAssocRequestHeader (ssid=ns-3-ssid1, rates=[6mbs 9mbs 12mbs 18mbs 24mbs 36mbs 48mbs 54mbs], HT Capabilities=0|0|0|0) ns3::WifiMacTrailer ()
r 0.00031709 /NodeList/7/DeviceList/0/$ns3::WifiNetDevice/Phy/State/RxOk ns3::WifiMacHeader (MGT_ASSOCIATION_REQUEST ToDS=0, FromDS=0, MoreFrag=0, Retry=0, MoreData=0 Duration/ID=60us, DA=00:00:00:00:00:09, SA=00:00:00:00:00:05, BSSID=00:00:00:00:00:09, FragNumber=0, SeqNumber=0) ns3::MgtAssocRequestHeader (ssid=ns-3-ssid1, rates=[6mbs 9mbs 12mbs 18mbs 24mbs 36mbs 48mbs 54mbs], HT Capabilities=0|0|0|0) ns3::WifiMacTrailer ()
r 0.000317099 /NodeList/5/DeviceList/0/$ns3::WifiNetDevice/Phy/State/RxOk ns3::WifiMacHeader (MGT_ASSOCIATION_REQUEST ToDS=0, FromDS=0, MoreFrag=0, Retry=0, MoreData=0 Duration/ID=60us, DA=00:00:00:00:00:09, SA=00:00:00:00:00:05, BSSID=00:00:00:00:00:09, FragNumber=0, SeqNumber=0) ns3::MgtAssocRequestHeader (ssid=ns-3-ssid1, rates=[6mbs 9mbs 12mbs 18mbs 24mbs 36mbs 48mbs 54mbs], HT Capabilities=0|0|0|0) ns3::WifiMacTrailer ()
r 0.000323099 /NodeList/8/DeviceList/0/$ns3::WifiNetDevice/Phy/State/RxOk ns3::WifiMacHeader (CTL_ACK Duration/ID=0us, RA=00:00:00:00:00:0c) ns3::WifiMacTrailer ()
r 0.000323099 /NodeList/9/DeviceList/0/$ns3::WifiNetDevice/Phy/State/RxOk ns3::WifiMacHeader (CTL_ACK Duration/ID=0us, RA=00:00:00:00:00:0c) ns3::WifiMacTrailer ()
r 0.000323099 /NodeList/10/DeviceList/0/$ns3::WifiNetDevice/Phy/State/RxOk ns3::WifiMacHeader (CTL_ACK Duration/ID=0us, RA=00:00:00:00:00:0c) ns3::WifiMacTrailer ()
r 0.000323099 /NodeList/11/DeviceList/0/$ns3::WifiNetDevice/Phy/State/RxOk ns3::WifiMacHeader (CTL_ACK Duration/ID=0us, RA=00:00:00:00:00:0c) ns3::WifiMacTrailer ()
r 0.000323099 /NodeList/12/DeviceList/0/$ns3::WifiNetDevice/Phy/State/RxOk ns3::WifiMacHeader (CTL_ACK Duration/ID=0us, RA=00:00:00:00:00:0c) ns3::WifiMacTrailer ()
r 0.000323099 /NodeList/13/DeviceList/0/$ns3::WifiNetDevice/Phy/State/RxOk ns3::WifiMacHeader (CTL_ACK Duration/ID=0us, RA=00:00:00:00:00:0c) ns3::WifiMacTrailer ()
t 0.000333066 /NodeList/0/DeviceList/1/$ns3::WifiNetDevice/Phy/State/Tx ns3::WifiMacHeader (CTL_ACK Duration/ID=0us, RA=00:00:00:00:00:05) ns3::WifiMacTrailer ()
r 0.000377099 /NodeList/2/DeviceList/0/$ns3::WifiNetDevice/Phy/State/RxOk ns3::WifiMacHeader (CTL_ACK Duration/ID=0us, RA=00:00:00:00:00:05) ns3::WifiMacTrailer ()
r 0.000377099 /NodeList/3/DeviceList/0/$ns3::WifiNetDevice/Phy/State/RxOk ns3::WifiMacHeader (CTL_ACK Duration/ID=0us, RA=00:00:00:00:00:05) ns3::WifiMacTrailer ()
r 0.000377099 /NodeList/4/DeviceList/0/$ns3::WifiNetDevice/Phy/State/RxOk ns3::WifiMacHeader (CTL_ACK Duration/ID=0us, RA=00:00:00:00:00:05) ns3::WifiMacTrailer ()
r 0.000377099 /NodeList/5/DeviceList/0/$ns3::WifiNetDevice/Phy/State/RxOk ns3::WifiMacHeader (CTL_ACK Duration/ID=0us, RA=00:00:00:00:00:05) ns3::WifiMacTrailer ()
r 0.000377099 /NodeList/6/DeviceList/0/$ns3::WifiNetDevice/Phy/State/RxOk ns3::WifiMacHeader (CTL_ACK Duration/ID=0us, RA=00:00:00:00:00:05) ns3::WifiMacTrailer ()
r 0.000377099 /NodeList/7/DeviceList/0/$ns3::WifiNetDevice/Phy/State/RxOk ns3::WifiMacHeader (CTL_ACK Duration/ID=0us, RA=00:00:00:00:00:05) ns3::WifiMacTrailer ()
t 0.000393099 /NodeList/8/DeviceList/0/$ns3::WifiNetDevice/Phy/State/Tx ns3::WifiMacHeader (MGT_ASSOCIATION_REQUEST ToDS=0, FromDS=0, MoreFrag=0, Retry=0, MoreData=0 Duration/ID=60us, DA=00:00:00:00:00:10, SA=00:00:00:00:00:0a, BSSID=00:00:00:00:00:10, FragNumber=0, SeqNumber=0) ns3::MgtAssocRequestHeader (ssid=ns-3-ssid2, rates=[6mbs 9mbs 12mbs 18mbs 24mbs 36mbs 48mbs 54mbs], HT Capabilities=0|0|0|0) ns3::WifiMacTrailer ()
t 0.000393099 /NodeList/13/DeviceList/0/$ns3::WifiNetDevice/Phy/State/Tx ns3::WifiMacHeader (MGT_ASSOCIATION_REQUEST ToDS=0, FromDS=0, MoreFrag=0, Retry=0, MoreData=0 Duration/ID=60us, DA=00:00:00:00:00:10, SA=00:00:00:00:00:0f, BSSID=00:00:00:00:00:10, FragNumber=0, SeqNumber=0) ns3::MgtAssocRequestHeader (ssid=ns-3-ssid2, rates=[6mbs 9mbs 12mbs 18mbs 24mbs 36mbs 48mbs 54mbs], HT Capabilities=0|0|0|0) ns3::WifiMacTrailer ()
t 0.000420099 /NodeList/7/DeviceList/0/$ns3::WifiNetDevice/Phy/State/Tx ns3::WifiMacHeader (MGT_ASSOCIATION_REQUEST ToDS=0, FromDS=0, MoreFrag=0, Retry=0, MoreData=0 Duration/ID=60us, DA=00:00:00:00:00:09, SA=00:00:00:00:00:08, BSSID=00:00:00:00:00:09, FragNumber=0, SeqNumber=0) ns3::MgtAssocRequestHeader (ssid=ns-3-ssid1, rates=[6mbs 9mbs 12mbs 18mbs 24mbs 36mbs 48mbs 54mbs], HT Capabilities=0|0|0|0) ns3::WifiMacTrailer ()
r 0.000489132 /NodeList/9/DeviceList/0/$ns3::WifiNetDevice/Phy/State/RxOk ns3::WifiMacHeader (MGT_ASSOCIATION_REQUEST ToDS=0, FromDS=0, MoreFrag=0, Retry=0, MoreData=0 Duration/ID=60us, DA=00:00:00:00:00:10, SA=00:00:00:00:00:0a, BSSID=00:00:00:00:00:10, FragNumber=0, SeqNumber=0) ns3::MgtAssocRequestHeader (ssid=ns-3-ssid2, rates=[6mbs 9mbs 12mbs 18mbs 24mbs 36mbs 48mbs 54mbs], HT Capabilities=0|0|0|0) ns3::WifiMacTrailer ()
r 0.000489132 /NodeList/10/DeviceList/0/$ns3::WifiNetDevice/Phy/State/RxOk ns3::WifiMacHeader (MGT_ASSOCIATION_REQUEST ToDS=0, FromDS=0, MoreFrag=0, Retry=0, MoreData=0 Duration/ID=60us, DA=00:00:00:00:00:10, SA=00:00:00:00:00:0a, BSSID=00:00:00:00:00:10, FragNumber=0, SeqNumber=0) ns3::MgtAssocRequestHeader (ssid=ns-3-ssid2, rates=[6mbs 9mbs 12mbs 18mbs 24mbs 36mbs 48mbs 54mbs], HT Capabilities=0|0|0|0) ns3::WifiMacTrailer ()
r 0.000489132 /NodeList/11/DeviceList/0/$ns3::WifiNetDevice/Phy/State/RxOk ns3::WifiMacHeader (MGT_ASSOCIATION_REQUEST ToDS=0, FromDS=0, MoreFrag=0, Retry=0, MoreData=0 Duration/ID=60us, DA=00:00:00:00:00:10, SA=00:00:00:00:00:0f, BSSID=00:00:00:00:00:10, FragNumber=0, SeqNumber=0) ns3::MgtAssocRequestHeader (ssid=ns-3-ssid2, rates=[6mbs 9mbs 12mbs 18mbs 24mbs 36mbs 48mbs 54mbs], HT Capabilities=0|0|0|0) ns3::WifiMacTrailer ()
r 0.000489132 /NodeList/12/DeviceList/0/$ns3::WifiNetDevice/Phy/State/RxOk ns3::WifiMacHeader (MGT_ASSOCIATION_REQUEST ToDS=0, FromDS=0, MoreFrag=0, Retry=0, MoreData=0 Duration/ID=60us, DA=00:00:00:00:00:10, SA=00:00:00:00:00:0f, BSSID=00:00:00:00:00:10, FragNumber=0, SeqNumber=0) ns3::MgtAssocRequestHeader (ssid=ns-3-ssid2, rates=[6mbs 9mbs 12mbs 18mbs 24mbs 36mbs 48mbs 54mbs], HT Capabilities=0|0|0|0) ns3::WifiMacTrailer ()
r 0.000516132 /NodeList/5/DeviceList/0/$ns3::WifiNetDevice/Phy/State/RxOk ns3::WifiMacHeader (MGT_ASSOCIATION_REQUEST ToDS=0, FromDS=0, MoreFrag=0, Retry=0, MoreData=0 Duration/ID=60us, DA=00:00:00:00:00:09, SA=00:00:00:00:00:08, BSSID=00:00:00:00:00:09, FragNumber=0, SeqNumber=0) ns3::MgtAssocRequestHeader (ssid=ns-3-ssid1, rates=[6mbs 9mbs 12mbs 18mbs 24mbs 36mbs 48mbs 54mbs], HT Capabilities=0|0|0|0) ns3::WifiMacTrailer ()
r 0.000516132 /NodeList/6/DeviceList/0/$ns3::WifiNetDevice/Phy/State/RxOk ns3::WifiMacHeader (MGT_ASSOCIATION_REQUEST ToDS=0, FromDS=0, MoreFrag=0, Retry=0, MoreData=0 Duration/ID=60us, DA=00:00:00:00:00:09, SA=00:00:00:00:00:08, BSSID=00:00:00:00:00:09, FragNumber=0, SeqNumber=0) ns3::MgtAssocRequestHeader (ssid=ns-3-ssid1, rates=[6mbs 9mbs 12mbs 18mbs 24mbs 36mbs 48mbs 54mbs], HT Capabilities=0|0|0|0) ns3::WifiMacTrailer ()
r 0.000516132 /NodeList/0/DeviceList/1/$ns3::WifiNetDevice/Phy/State/RxOk ns3::WifiMacHeader (MGT_ASSOCIATION_REQUEST ToDS=0, FromDS=0, MoreFrag=0, Retry=0, MoreData=0 Duration/ID=60us, DA=00:00:00:00:00:09, SA=00:00:00:00:00:08, BSSID=00:00:00:00:00:09, FragNumber=0, SeqNumber=0) ns3::MgtAssocRequestHeader (ssid=ns-3-ssid1, rates=[6mbs 9mbs 12mbs 18mbs 24mbs 36mbs 48mbs 54mbs], HT Capabilities=0|0|0|0) ns3::WifiMacTrailer ()
r 0.000516156 /NodeList/3/DeviceList/0/$ns3::WifiNetDevice/Phy/State/RxOk ns3::WifiMacHeader (MGT_ASSOCIATION_REQUEST ToDS=0, FromDS=0, MoreFrag=0, Retry=0, MoreData=0 Duration/ID=60us, DA=00:00:00:00:00:09, SA=00:00:00:00:00:08, BSSID=00:00:00:00:00:09, FragNumber=0, SeqNumber=0) ns3::MgtAssocRequestHeader (ssid=ns-3-ssid1, rates=[6mbs 9mbs 12mbs 18mbs 24mbs 36mbs 48mbs 54mbs], HT Capabilities=0|0|0|0) ns3::WifiMacTrailer ()
r 0.000516156 /NodeList/4/DeviceList/0/$ns3::WifiNetDevice/Phy/State/RxOk ns3::WifiMacHeader (MGT_ASSOCIATION_REQUEST ToDS=0, FromDS=0, MoreFrag=0, Retry=0, MoreData=0 Duration/ID=60us, DA=00:00:00:00:00:09, SA=00:00:00:00:00:08, BSSID=00:00:00:00:00:09, FragNumber=0, SeqNumber=0) ns3::MgtAssocRequestHeader (ssid=ns-3-ssid1, rates=[6mbs 9mbs 12mbs 18mbs 24mbs 36mbs 48mbs 54mbs], HT Capabilities=0|0|0|0) ns3::WifiMacTrailer ()
r 0.000516165 /NodeList/2/DeviceList/0/$ns3::WifiNetDevice/Phy/State/RxOk ns3::WifiMacHeader (MGT_ASSOCIATION_REQUEST ToDS=0, FromDS=0, MoreFrag=0, Retry=0, MoreData=0 Duration/ID=60us, DA=00:00:00:00:00:09, SA=00:00:00:00:00:08, BSSID=00:00:00:00:00:09, FragNumber=0, SeqNumber=0) ns3::MgtAssocRequestHeader (ssid=ns-3-ssid1, rates=[6mbs 9mbs 12mbs 18mbs 24mbs 36mbs 48mbs 54mbs], HT Capabilities=0|0|0|0) ns3::WifiMacTrailer ()
t 0.000532132 /NodeList/0/DeviceList/1/$ns3::WifiNetDevice/Phy/State/Tx ns3::WifiMacHeader (CTL_ACK Duration/ID=0us, RA=00:00:00:00:00:08) ns3::WifiMacTrailer ()
r 0.000576165 /NodeList/2/DeviceList/0/$ns3::WifiNetDevice/Phy/State/RxOk ns3::WifiMacHeader (CTL_ACK Duration/ID=0us, RA=00:00:00:00:00:08) ns3::WifiMacTrailer ()
r 0.000576165 /NodeList/3/DeviceList/0/$ns3::WifiNetDevice/Phy/State/RxOk ns3::WifiMacHeader (CTL_ACK Duration/ID=0us, RA=00:00:00:00:00:08) ns3::WifiMacTrailer ()
r 0.000576165 /NodeList/4/DeviceList/0/$ns3::WifiNetDevice/Phy/State/RxOk ns3::WifiMacHeader (CTL_ACK Duration/ID=0us, RA=00:00:00:00:00:08) ns3::WifiMacTrailer ()
r 0.000576165 /NodeList/5/DeviceList/0/$ns3::WifiNetDevice/Phy/State/RxOk ns3::WifiMacHeader (CTL_ACK Duration/ID=0us, RA=00:00:00:00:00:08) ns3::WifiMacTrailer ()
r 0.000576165 /NodeList/6/DeviceList/0/$ns3::WifiNetDevice/Phy/State/RxOk ns3::WifiMacHeader (CTL_ACK Duration/ID=0us, RA=00:00:00:00:00:08) ns3::WifiMacTrailer ()
r 0.000576165 /NodeList/7/DeviceList/0/$ns3::WifiNetDevice/Phy/State/RxOk ns3::WifiMacHeader (CTL_ACK Duration/ID=0us, RA=00:00:00:00:00:08) ns3::WifiMacTrailer ()
t 0.000592132 /NodeList/12/DeviceList/0/$ns3::WifiNetDevice/Phy/State/Tx ns3::WifiMacHeader (MGT_ASSOCIATION_REQUEST ToDS=0, FromDS=0, MoreFrag=0, Retry=0, MoreData=0 Duration/ID=60us, DA=00:00:00:00:00:10, SA=00:00:00:00:00:0e, BSSID=00:00:00:00:00:10, FragNumber=0, SeqNumber=0) ns3::MgtAssocRequestHeader (ssid=ns-3-ssid2, rates=[6mbs 9mbs 12mbs 18mbs 24mbs 36mbs 48mbs 54mbs], HT Capabilities=0|0|0|0) ns3::WifiMacTrailer ()
t 0.000592132 /NodeList/9/DeviceList/0/$ns3::WifiNetDevice/Phy/State/Tx ns3::WifiMacHeader (MGT_ASSOCIATION_REQUEST ToDS=0, FromDS=0, MoreFrag=0, Retry=0, MoreData=0 Duration/ID=60us, DA=00:00:00:00:00:10, SA=00:00:00:00:00:0b, BSSID=00:00:00:00:00:10, FragNumber=0, SeqNumber=0) ns3::MgtAssocRequestHeader (ssid=ns-3-ssid2, rates=[6mbs 9mbs 12mbs 18mbs 24mbs 36mbs 48mbs 54mbs], HT Capabilities=0|0|0|0) ns3::WifiMacTrailer ()
t 0.000628132 /NodeList/0/DeviceList/1/$ns3::WifiNetDevice/Phy/State/Tx ns3::WifiMacHeader (MGT_ASSOCIATION_RESPONSE ToDS=0, FromDS=0, MoreFrag=0, Retry=0, MoreData=0 Duration/ID=60us, DA=00:00:00:00:00:05, SA=00:00:00:00:00:09, BSSID=00:00:00:00:00:09, FragNumber=0, SeqNumber=1) ns3::MgtAssocResponseHeader (status code=success, rates=[*6mbs 9mbs 12mbs 18mbs 24mbs 36mbs 48mbs 54mbs], HT Capabilities=0|0|0|0) ns3::WifiMacTrailer ()
r 0.000688165 /NodeList/10/DeviceList/0/$ns3::WifiNetDevice/Phy/State/RxOk ns3::WifiMacHeader (MGT_ASSOCIATION_REQUEST ToDS=0, FromDS=0, MoreFrag=0, Retry=0, MoreData=0 Duration/ID=60us, DA=00:00:00:00:00:10, SA=00:00:00:00:00:0e, BSSID=00:00:00:00:00:10, FragNumber=0, SeqNumber=0) ns3::MgtAssocRequestHeader (ssid=ns-3-ssid2, rates=[6mbs 9mbs 12mbs 18mbs 24mbs 36mbs 48mbs 54mbs], HT Capabilities=0|0|0|0) ns3::WifiMacTrailer ()
r 0.000688165 /NodeList/13/DeviceList/0/$ns3::WifiNetDevice/Phy/State/RxOk ns3::WifiMacHeader (MGT_ASSOCIATION_REQUEST ToDS=0, FromDS=0, MoreFrag=0, Retry=0, MoreData=0 Duration/ID=60us, DA=00:00:00:00:00:10, SA=00:00:00:00:00:0e, BSSID=00:00:00:00:00:10, FragNumber=0, SeqNumber=0) ns3::MgtAssocRequestHeader (ssid=ns-3-ssid2, rates=[6mbs 9mbs 12mbs 18mbs 24mbs 36mbs 48mbs 54mbs], HT Capabilities=0|0|0|0) ns3::WifiMacTrailer ()
r 0.000688165 /NodeList/8/DeviceList/0/$ns3::WifiNetDevice/Phy/State/RxOk ns3::WifiMacHeader (MGT_ASSOCIATION_REQUEST ToDS=0, FromDS=0, MoreFrag=0, Retry=0, MoreData=0 Duration/ID=60us, DA=00:00:00:00:00:10, SA=00:00:00:00:00:0b, BSSID=00:00:00:00:00:10, FragNumber=0, SeqNumber=0) ns3::MgtAssocRequestHeader (ssid=ns-3-ssid2, rates=[6mbs 9mbs 12mbs 18mbs 24mbs 36mbs 48mbs 54mbs], HT Capabilities=0|0|0|0) ns3::WifiMacTrailer ()
r 0.000688165 /NodeList/11/DeviceList/0/$ns3::WifiNetDevice/Phy/State/RxOk ns3::WifiMacHeader (MGT_ASSOCIATION_REQUEST ToDS=0, FromDS=0, MoreFrag=0, Retry=0, MoreData=0 Duration/ID=60us, DA=00:00:00:00:00:10, SA=00:00:00:00:00:0b, BSSID=00:00:00:00:00:10, FragNumber=0, SeqNumber=0) ns3::MgtAssocRequestHeader (ssid=ns-3-ssid2, rates=[6mbs 9mbs 12mbs 18mbs 24mbs 36mbs 48mbs 54mbs], HT Capabilities=0|0|0|0) ns3::WifiMacTrailer ()
r 0.000712165 /NodeList/2/DeviceList/0/$ns3::WifiNetDevice/Phy/State/RxOk ns3::WifiMacHeader (MGT_ASSOCIATION_RESPONSE ToDS=0, FromDS=0, MoreFrag=0, Retry=0, MoreData=0 Duration/ID=60us, DA=00:00:00:00:00:05, SA=00:00:00:00:00:09, BSSID=00:00:00:00:00:09, FragNumber=0, SeqNumber=1) ns3::MgtAssocResponseHeader (status code=success, rates=[*6mbs 9mbs 12mbs 18mbs 24mbs 36mbs 48mbs 54mbs], HT Capabilities=0|0|0|0) ns3::WifiMacTrailer ()
r 0.000712165 /NodeList/3/DeviceList/0/$ns3::WifiNetDevice/Phy/State/RxOk ns3::WifiMacHeader (MGT_ASSOCIATION_RESPONSE ToDS=0, FromDS=0, MoreFrag=0, Retry=0, MoreData=0 Duration/ID=60us, DA=00:00:00:00:00:05, SA=00:00:00:00:00:09, BSSID=00:00:00:00:00:09, FragNumber=0, SeqNumber=1) ns3::MgtAssocResponseHeader (status code=success, rates=[*6mbs 9mbs 12mbs 18mbs 24mbs 36mbs 48mbs 54mbs], HT Capabilities=0|0|0|0) ns3::WifiMacTrailer ()
r 0.000712165 /NodeList/4/DeviceList/0/$ns3::WifiNetDevice/Phy/State/RxOk ns3::WifiMacHeader (MGT_ASSOCIATION_RESPONSE ToDS=0, FromDS=0, MoreFrag=0, Retry=0, MoreData=0 Duration/ID=60us, DA=00:00:00:00:00:05, SA=00:00:00:00:00:09, BSSID=00:00:00:00:00:09, FragNumber=0, SeqNumber=1) ns3::MgtAssocResponseHeader (status code=success, rates=[*6mbs 9mbs 12mbs 18mbs 24mbs 36mbs 48mbs 54mbs], HT Capabilities=0|0|0|0) ns3::WifiMacTrailer ()
r 0.000712165 /NodeList/5/DeviceList/0/$ns3::WifiNetDevice/Phy/State/RxOk ns3::WifiMacHeader (MGT_ASSOCIATION_RESPONSE ToDS=0, FromDS=0, MoreFrag=0, Retry=0, MoreData=0 Duration/ID=60us, DA=00:00:00:00:00:05, SA=00:00:00:00:00:09, BSSID=00:00:00:00:00:09, FragNumber=0, SeqNumber=1) ns3::MgtAssocResponseHeader (status code=success, rates=[*6mbs 9mbs 12mbs 18mbs 24mbs 36mbs 48mbs 54mbs], HT Capabilities=0|0|0|0) ns3::WifiMacTrailer ()
r 0.000712165 /NodeList/6/DeviceList/0/$ns3::WifiNetDevice/Phy/State/RxOk ns3::WifiMacHeader (MGT_ASSOCIATION_RESPONSE ToDS=0, FromDS=0, MoreFrag=0, Retry=0, MoreData=0 Duration/ID=60us, DA=00:00:00:00:00:05, SA=00:00:00:00:00:09, BSSID=00:00:00:00:00:09, FragNumber=0, SeqNumber=1) ns3::MgtAssocResponseHeader (status code=success, rates=[*6mbs 9mbs 12mbs 18mbs 24mbs 36mbs 48mbs 54mbs], HT Capabilities=0|0|0|0) ns3::WifiMacTrailer ()
r 0.000712165 /NodeList/7/DeviceList/0/$ns3::WifiNetDevice/Phy/State/RxOk ns3::WifiMacHeader (MGT_ASSOCIATION_RESPONSE ToDS=0, FromDS=0, MoreFrag=0, Retry=0, MoreData=0 Duration/ID=60us, DA=00:00:00:00:00:05, SA=00:00:00:00:00:09, BSSID=00:00:00:00:00:09, FragNumber=0, SeqNumber=1) ns3::MgtAssocResponseHeader (status code=success, rates=[*6mbs 9mbs 12mbs 18mbs 24mbs 36mbs 48mbs 54mbs], HT Capabilities=0|0|0|0) ns3::WifiMacTrailer ()
t 0.000728165 /NodeList/4/DeviceList/0/$ns3::WifiNetDevice/Phy/State/Tx ns3::WifiMacHeader (CTL_ACK Duration/ID=0us, RA=00:00:00:00:00:09) ns3::WifiMacTrailer ()
r 0.000772198 /NodeList/2/DeviceList/0/$ns3::WifiNetDevice/Phy/State/RxOk ns3::WifiMacHeader (CTL_ACK Duration/ID=0us, RA=00:00:00:00:00:09) ns3::WifiMacTrailer ()
r 0.000772198 /NodeList/6/DeviceList/0/$ns3::WifiNetDevice/Phy/State/RxOk ns3::WifiMacHeader (CTL_ACK Duration/ID=0us, RA=00:00:00:00:00:09) ns3::WifiMacTrailer ()
r 0.000772198 /NodeList/0/DeviceList/1/$ns3::WifiNetDevice/Phy/State/RxOk ns3::WifiMacHeader (CTL_ACK Duration/ID=0us, RA=00:00:00:00:00:09) ns3::WifiMacTrailer ()
r 0.000772222 /NodeList/3/DeviceList/0/$ns3::WifiNetDevice/Phy/State/RxOk ns3::WifiMacHeader (CTL_ACK Duration/ID=0us, RA=00:00:00:00:00:09) ns3::WifiMacTrailer ()
r 0.000772222 /NodeList/7/DeviceList/0/$ns3::WifiNetDevice/Phy/State/RxOk ns3::WifiMacHeader (CTL_ACK Duration/ID=0us, RA=00:00:00:00:00:09) ns3::WifiMacTrailer ()
r 0.000772231 /NodeList/5/DeviceList/0/$ns3::WifiNetDevice/Phy/State/RxOk ns3::WifiMacHeader (CTL_ACK Duration/ID=0us, RA=00:00:00:00:00:09) ns3::WifiMacTrailer ()
t 0.000806198 /NodeList/0/DeviceList/1/$ns3::WifiNetDevice/Phy/State/Tx ns3::WifiMacHeader (MGT_ASSOCIATION_RESPONSE ToDS=0, FromDS=0, MoreFrag=0, Retry=0, MoreData=0 Duration/ID=60us, DA=00:00:00:00:00:08, SA=00:00:00:00:00:09, BSSID=00:00:00:00:00:09, FragNumber=0, SeqNumber=2) ns3::MgtAssocResponseHeader (status code=success, rates=[*6mbs 9mbs 12mbs 18mbs 24mbs 36mbs 48mbs 54mbs], HT Capabilities=0|0|0|0) ns3::WifiMacTrailer ()
t 0.000836165 /NodeList/1/DeviceList/1/$ns3::WifiNetDevice/Phy/State/Tx ns3::WifiMacHeader (MGT_ASSOCIATION_RESPONSE ToDS=0, FromDS=0, MoreFrag=0, Retry=0, MoreData=0 Duration/ID=60us, DA=00:00:00:00:00:0c, SA=00:00:00:00:00:10, BSSID=00:00:00:00:00:10, FragNumber=0, SeqNumber=1) ns3::MgtAssocResponseHeader (status code=success, rates=[*6mbs 9mbs 12mbs 18mbs 24mbs 36mbs 48mbs 54mbs], HT Capabilities=0|0|0|0) ns3::WifiMacTrailer ()
r 0.000890231 /NodeList/2/DeviceList/0/$ns3::WifiNetDevice/Phy/State/RxOk ns3::WifiMacHeader (MGT_ASSOCIATION_RESPONSE ToDS=0, FromDS=0, MoreFrag=0, Retry=0, MoreData=0 Duration/ID=60us, DA=00:00:00:00:00:08, SA=00:00:00:00:00:09, BSSID=00:00:00:00:00:09, FragNumber=0, SeqNumber=2) ns3::MgtAssocResponseHeader (status code=success, rates=[*6mbs 9mbs 12mbs 18mbs 24mbs 36mbs 48mbs 54mbs], HT Capabilities=0|0|0|0) ns3::WifiMacTrailer ()
r 0.000890231 /NodeList/3/DeviceList/0/$ns3::WifiNetDevice/Phy/State/RxOk ns3::WifiMacHeader (MGT_ASSOCIATION_RESPONSE ToDS=0, FromDS=0, MoreFrag=0, Retry=0, MoreData=0 Duration/ID=60us, DA=00:00:00:00:00:08, SA=00:00:00:00:00:09, BSSID=00:00:00:00:00:09, FragNumber=0, SeqNumber=2) ns3::MgtAssocResponseHeader (status code=success, rates=[*6mbs 9mbs 12mbs 18mbs 24mbs 36mbs 48mbs 54mbs], HT Capabilities=0|0|0|0) ns3::WifiMacTrailer ()
r 0.000890231 /NodeList/4/DeviceList/0/$ns3::WifiNetDevice/Phy/State/RxOk ns3::WifiMacHeader (MGT_ASSOCIATION_RESPONSE ToDS=0, FromDS=0, MoreFrag=0, Retry=0, MoreData=0 Duration/ID=60us, DA=00:00:00:00:00:08, SA=00:00:00:00:00:09, BSSID=00:00:00:00:00:09, FragNumber=0, SeqNumber=2) ns3::MgtAssocResponseHeader (status code=success, rates=[*6mbs 9mbs 12mbs 18mbs 24mbs 36mbs 48mbs 54mbs], HT Capabilities=0|0|0|0) ns3::WifiMacTrailer ()