t 2.5e-05 /NodeList/0/DeviceList/1/$ns3::WifiNetDevice/Phy/State/Tx ns3::WifiMacHeader (MGT_BEACON ToDS=0, FromDS=0, MoreFrag=0, Retry=0, MoreData=0 Duration/ID=0us, DA=ff:ff:ff:ff:ff:ff, SA=00:00:00:00:00:06, BSSID=00:00:00:00:00:06, FragNumber=0, SeqNumber=0) ns3::MgtProbeResponseHeader (ssid=ns-3-ssid1, rates=[*6mbs 9mbs 12mbs 18mbs 24mbs 36mbs 48mbs 54mbs], HT Capabilities=0|0|0|0) ns3::WifiMacTrailer ()
t 2.5e-05 /NodeList/1/DeviceList/1/$ns3::WifiNetDevice/Phy/State/Tx ns3::WifiMacHeader (MGT_BEACON ToDS=0, FromDS=0, MoreFrag=0, Retry=0, MoreData=0 Duration/ID=0us, DA=ff:ff:ff:ff:ff:ff, SA=00:00:00:00:00:0a, BSSID=00:00:00:00:00:0a, FragNumber=0, SeqNumber=0) ns3::MgtProbeResponseHeader (ssid=ns-3-ssid2, rates=[*6mbs 9mbs 12mbs 18mbs 24mbs 36mbs 48mbs 54mbs], HT Capabilities=0|0|0|0) ns3::WifiMacTrailer ()
r 0.000133 /NodeList/2/DeviceList/0/$ns3::WifiNetDevice/Phy/State/RxOk ns3::WifiMacHeader (MGT_BEACON ToDS=0, FromDS=0, MoreFrag=0, Retry=0, MoreData=0 Duration/ID=0us, DA=ff:ff:ff:ff:ff:ff, SA=00:00:00:00:00:06, BSSID=00:00:00:00:00:06, FragNumber=0, SeqNumber=0) ns3::MgtProbeResponseHeader (ssid=ns-3-ssid1, rates=[*6mbs 9mbs 12mbs 18mbs 24mbs 36mbs 48mbs 54mbs], HT Capabilities=0|0|0|0) ns3::WifiMacTrailer ()
r 0.000133 /NodeList/3/DeviceList/0/$ns3::WifiNetDevice/Phy/State/RxOk ns3::WifiMacHeader (MGT_BEACON ToDS=0, FromDS=0, MoreFrag=0, Retry=0, MoreData=0 Duration/ID=0us, DA=ff:ff:ff:ff:ff:ff, SA=00:00:00:00:00:06, BSSID=00:00:00:00:00:06, FragNumber=0, SeqNumber=0) ns3::MgtProbeResponseHeader (ssid=ns-3-ssid1, rates=[*6mbs 9mbs 12mbs 18mbs 24mbs 36mbs 48mbs 54mbs], HT Capabilities=0|0|0|0) ns3::WifiMacTrailer ()
r 0.000133 /NodeList/4/DeviceList/0/$ns3::WifiNetDevice/Phy/State/RxOk ns3::WifiMacHeader (MGT_BEACON ToDS=0, FromDS=0, MoreFrag=0, Retry=0, MoreData=0 Duration/ID=0us, DA=ff:ff:ff:ff:ff:ff, SA=00:00:00:00:00:06, BSSID=00:00:00:00:00:06, FragNumber=0, SeqNumber=0) ns3::MgtProbeResponseHeader (ssid=ns-3-ssid1, rates=[*6mbs 9mbs 12mbs 18mbs 24mbs 36mbs 48mbs 54mbs], HT Capabilities=0|0|0|0) ns3::WifiMacTrailer ()
r 0.000133 /NodeList/5/DeviceList/0/$ns3::WifiNetDevice/Phy/State/RxOk ns3::WifiMacHeader (MGT_BEACON ToDS=0, FromDS=0, MoreFrag=0, Retry=0, MoreData=0 Duration/ID=0us, DA=ff:ff:ff:ff:ff:ff, SA=00:00:00:00:00:0a, BSSID=00:00:00:00:00:0a, FragNumber=0, SeqNumber=0) ns3::MgtProbeResponseHeader (ssid=ns-3-ssid2, rates=[*6mbs 9mbs 12mbs 18mbs 24mbs 36mbs 48mbs 54mbs], HT Capabilities=0|0|0|0) ns3::WifiMacTrailer ()
r 0.000133 /NodeList/6/DeviceList/0/$ns3::WifiNetDevice/Phy/State/RxOk ns3::WifiMacHeader (MGT_BEACON ToDS=0, FromDS=0, MoreFrag=0, Retry=0, MoreData=0 Duration/ID=0us, DA=ff:ff:ff:ff:ff:ff, SA=00:00:00:00:00:0a, BSSID=00:00:00:00:00:0a, FragNumber=0, SeqNumber=0) ns3::MgtProbeResponseHeader (ssid=ns-3-ssid2, rates=[*6mbs 9mbs 12mbs 18mbs 24mbs 36mbs 48mbs 54mbs], HT Capabilities=0|0|0|0) ns3::WifiMacTrailer ()
r 0.000133 /NodeList/7/DeviceList/0/$ns3::WifiNetDevice/Phy/State/RxOk ns3::WifiMacHeader (MGT_BEACON ToDS=0, FromDS=0, MoreFrag=0, Retry=0, MoreData=0 Duration/ID=0us, DA=ff:ff:ff:ff:ff:ff, SA=00:00:00:00:00:0a, BSSID=00:00:00:00:00:0a, FragNumber=0, SeqNumber=0) ns3::MgtProbeResponseHeader (ssid=ns-3-ssid2, rates=[*6mbs 9mbs 12mbs 18mbs 24mbs 36mbs 48mbs 54mbs], HT Capabilities=0|0|0|0) ns3::WifiMacTrailer ()
t 0.000185 /NodeList/7/DeviceList/0/$ns3::WifiNetDevice/Phy/State/Tx ns3::WifiMacHeader (MGT_ASSOCIATION_REQUEST ToDS=0, FromDS=0, MoreFrag=0, Retry=0, MoreData=0 Duration/ID=60us, DA=00:00:00:00:00:0a, SA=00:00:00:00:00:09, BSSID=00:00:00:00:00:0a, FragNumber=0, SeqNumber=0) ns3::MgtAssocRequestHeader (ssid=ns-3-ssid2, rates=[6mbs 9mbs 12mbs 18mbs 24mbs 36mbs 48mbs 54mbs], HT Capabilities=0|0|0|0) ns3::WifiMacTrailer ()
t 0.000221 /NodeList/4/DeviceList/0/$ns3::WifiNetDevice/Phy/State/Tx ns3::WifiMacHeader (MGT_ASSOCIATION_REQUEST ToDS=0, FromDS=0, MoreFrag=0, Retry=0, MoreData=0 Duration/ID=60us, DA=00:00:00:00:00:06, SA=00:00:00:00:00:05, BSSID=00:00:00:00:00:06, FragNumber=0, SeqNumber=0) ns3::MgtAssocRequestHeader (ssid=ns-3-ssid1, rates=[6mbs 9mbs 12mbs 18mbs 24mbs 36mbs 48mbs 54mbs], HT Capabilities=0|0|0|0) ns3::WifiMacTrailer ()
r 0.000281 /NodeList/5/DeviceList/0/$ns3::WifiNetDevice/Phy/State/RxOk ns3::WifiMacHeader (MGT_ASSOCIATION_REQUEST ToDS=0, FromDS=0, MoreFrag=0, Retry=0, MoreData=0 Duration/ID=60us, DA=00:00:00:00:00:0a, SA=00:00:00:00:00:09, BSSID=00:00:00:00:00:0a, FragNumber=0, SeqNumber=0) ns3::MgtAssocRequestHeader (ssid=ns-3-ssid2, rates=[6mbs 9mbs 12mbs 18mbs 24mbs 36mbs 48mbs 54mbs], HT Capabilities=0|0|0|0) ns3::WifiMacTrailer ()
r 0.000281 /NodeList/6/DeviceList/0/$ns3::WifiNetDevice/Phy/State/RxOk ns3::WifiMacHeader (MGT_ASSOCIATION_REQUEST ToDS=0, FromDS=0, MoreFrag=0, Retry=0, MoreData=0 Duration/ID=60us, DA=00:00:00:00:00:0a, SA=00:00:00:00:00:09, BSSID=00:00:00:00:00:0a, FragNumber=0, SeqNumber=0) ns3::MgtAssocRequestHeader (ssid=ns-3-ssid2, rates=[6mbs 9mbs 12mbs 18mbs 24mbs 36mbs 48mbs 54mbs], HT Capabilities=0|0|0|0) ns3::WifiMacTrailer ()
r 0.000281 /NodeList/1/DeviceList/1/$ns3::WifiNetDevice/Phy/State/RxOk ns3::WifiMacHeader (MGT_ASSOCIATION_REQUEST ToDS=0, FromDS=0, MoreFrag=0, Retry=0, MoreData=0 Duration/ID=60us, DA=00:00:00:00:00:0a, SA=00:00:00:00:00:09, BSSID=00:00:00:00:00:0a, FragNumber=0, SeqNumber=0) ns3::MgtAssocRequestHeader (ssid=ns-3-ssid2, rates=[6mbs 9mbs 12mbs 18mbs 24mbs 36mbs 48mbs 54mbs], HT Capabilities=0|0|0|0) ns3::WifiMacTrailer ()
t 0.000297 /NodeList/1/DeviceList/1/$ns3::WifiNetDevice/Phy/State/Tx ns3::WifiMacHeader (CTL_ACK Duration/ID=0us, RA=00:00:00:00:00:09) ns3::WifiMacTrailer ()
r 0.000317 /NodeList/2/DeviceList/0/$ns3::WifiNetDevice/Phy/State/RxOk ns3::WifiMacHeader (MGT_ASSOCIATION_REQUEST ToDS=0, FromDS=0, MoreFrag=0, Retry=0, MoreData=0 Duration/ID=60us, DA=00:00:00:00:00:06, SA=00:00:00:00:00:05, BSSID=00:00:00:00:00:06, FragNumber=0, SeqNumber=0) ns3::MgtAssocRequestHeader (ssid=ns-3-ssid1, rates=[6mbs 9mbs 12mbs 18mbs 24mbs 36mbs 48mbs 54mbs], HT Capabilities=0|0|0|0) ns3::WifiMacTrailer ()
r 0.000317 /NodeList/3/DeviceList/0/$ns3::WifiNetDevice/Phy/State/RxOk ns3::WifiMacHeader (MGT_ASSOCIATION_REQUEST ToDS=0, FromDS=0, MoreFrag=0, Retry=0, MoreData=0 Duration/ID=60us, DA=00:00:00:00:00:06, SA=00:00:00:00:00:05, BSSID=00:00:00:00:00:06, FragNumber=0, SeqNumber=0) ns3::MgtAssocRequestHeader (ssid=ns-3-ssid1, rates=[6mbs 9mbs 12mbs 18mbs 24mbs 36mbs 48mbs 54mbs], HT Capabilities=0|0|0|0) ns3::WifiMacTrailer ()
r 0.000317 /NodeList/0/DeviceList/1/$ns3::WifiNetDevice/Phy/State/RxOk ns3::WifiMacHeader (MGT_ASSOCIATION_REQUEST ToDS=0, FromDS=0, MoreFrag=0, Retry=0, MoreData=0 Duration/ID=60us, DA=00:00:00:00:00:06, SA=00:00:00:00:00:05, BSSID=00:00:00:00:00:06, FragNumber=0, SeqNumber=0) ns3::MgtAssocRequestHeader (ssid=ns-3-ssid1, rates=[6mbs 9mbs 12mbs 18mbs 24mbs 36mbs 48mbs 54mbs], HT Capabilities=0|0|0|0) ns3::WifiMacTrailer ()
t 0.000333 /NodeList/0/DeviceList/1/$ns3::WifiNetDevice/Phy/State/Tx ns3::WifiMacHeader (CTL_ACK Duration/ID=0us, RA=00:00:00:00:00:05) ns3::WifiMacTrailer ()
r 0.000341 /NodeList/5/DeviceList/0/$ns3::WifiNetDevice/Phy/State/RxOk ns3::WifiMacHeader (CTL_ACK Duration/ID=0us, RA=00:00:00:00:00:09) ns3::WifiMacTrailer ()
r 0.000341 /NodeList/6/DeviceList/0/$ns3::WifiNetDevice/Phy/State/RxOk ns3::WifiMacHeader (CTL_ACK Duration/ID=0us, RA=00:00:00:00:00:09) ns3::WifiMacTrailer ()
r 0.000341 /NodeList/7/DeviceList/0/$ns3::WifiNetDevice/Phy/State/RxOk ns3::WifiMacHeader (CTL_ACK Duration/ID=0us, RA=00:00:00:00:00:09) ns3::WifiMacTrailer ()
r 0.000377 /NodeList/2/DeviceList/0/$ns3::WifiNetDevice/Phy/State/RxOk ns3::WifiMacHeader (CTL_ACK Duration/ID=0us, RA=00:00:00:00:00:05) ns3::WifiMacTrailer ()
r 0.000377 /NodeList/3/DeviceList/0/$ns3::WifiNetDevice/Phy/State/RxOk ns3::WifiMacHeader (CTL_ACK Duration/ID=0us, RA=00:00:00:00:00:05) ns3::WifiMacTrailer ()
r 0.000377 /NodeList/4/DeviceList/0/$ns3::WifiNetDevice/Phy/State/RxOk ns3::WifiMacHeader (CTL_ACK Duration/ID=0us, RA=00:00:00:00:00:05) ns3::WifiMacTrailer ()
t 0.000393 /NodeList/1/DeviceList/1/$ns3::WifiNetDevice/Phy/State/Tx ns3::WifiMacHeader (MGT_ASSOCIATION_RESPONSE ToDS=0, FromDS=0, MoreFrag=0, Retry=0, MoreData=0 Duration/ID=60us, DA=00:00:00:00:00:09, SA=00:00:00:00:00:0a, BSSID=00:00:00:00:00:0a, FragNumber=0, SeqNumber=1) ns3::MgtAssocResponseHeader (status code=success, rates=[*6mbs 9mbs 12mbs 18mbs 24mbs 36mbs 48mbs 54mbs], HT Capabilities=0|0|0|0) ns3::WifiMacTrailer ()
t 0.000456 /NodeList/3/DeviceList/0/$ns3::WifiNetDevice/Phy/State/Tx ns3::WifiMacHeader (MGT_ASSOCIATION_REQUEST ToDS=0, FromDS=0, MoreFrag=0, Retry=0, MoreData=0 Duration/ID=60us, DA=00:00:00:00:00:06, SA=00:00:00:00:00:04, BSSID=00:00:00:00:00:06, FragNumber=0, SeqNumber=0) ns3::MgtAssocRequestHeader (ssid=ns-3-ssid1, rates=[6mbs 9mbs 12mbs 18mbs 24mbs 36mbs 48mbs 54mbs], HT Capabilities=0|0|0|0) ns3::WifiMacTrailer ()
r 0.000477 /NodeList/5/DeviceList/0/$ns3::WifiNetDevice/Phy/State/RxOk ns3::WifiMacHeader (MGT_ASSOCIATION_RESPONSE ToDS=0, FromDS=0, MoreFrag=0, Retry=0, MoreData=0 Duration/ID=60us, DA=00:00:00:00:00:09, SA=00:00:00:00:00:0a, BSSID=00:00:00:00:00:0a, FragNumber=0, SeqNumber=1) ns3::MgtAssocResponseHeader (status code=success, rates=[*6mbs 9mbs 12mbs 18mbs 24mbs 36mbs 48mbs 54mbs], HT Capabilities=0|0|0|0) ns3::WifiMacTrailer ()
r 0.000477 /NodeList/6/DeviceList/0/$ns3::WifiNetDevice/Phy/State/RxOk ns3::WifiMacHeader (MGT_ASSOCIATION_RESPONSE ToDS=0, FromDS=0, MoreFrag=0, Retry=0, MoreData=0 Duration/ID=60us, DA=00:00:00:00:00:09, SA=00:00:00:00:00:0a, BSSID=00:00:00:00:00:0a, FragNumber=0, SeqNumber=1) ns3::MgtAssocResponseHeader (status code=success, rates=[*6mbs 9mbs 12mbs 18mbs 24mbs 36mbs 48mbs 54mbs], HT Capabilities=0|0|0|0) ns3::WifiMacTrailer ()
r 0.000477 /NodeList/7/DeviceList/0/$ns3::WifiNetDevice/Phy/State/RxOk ns3::WifiMacHeader (MGT_ASSOCIATION_RESPONSE ToDS=0, FromDS=0, MoreFrag=0, Retry=0, MoreData=0 Duration/ID=60us, DA=00:00:00:00:00:09, SA=00:00:00:00:00:0a, BSSID=00:00:00:00:00:0a, FragNumber=0, SeqNumber=1) ns3::MgtAssocResponseHeader (status code=success, rates=[*6mbs 9mbs 12mbs 18mbs 24mbs 36mbs 48mbs 54mbs], HT Capabilities=0|0|0|0) ns3::WifiMacTrailer ()
t 0.000493 /NodeList/7/DeviceList/0/$ns3::WifiNetDevice/Phy/State/Tx ns3::WifiMacHeader (CTL_ACK Duration/ID=0us, RA=00:00:00:00:00:0a) ns3::WifiMacTrailer ()
r 0.000537 /NodeList/5/DeviceList/0/$ns3::WifiNetDevice/Phy/State/RxOk ns3::WifiMacHeader (CTL_ACK Duration/ID=0us, RA=00:00:00:00:00:0a) ns3::WifiMacTrailer ()
r 0.000537 /NodeList/6/DeviceList/0/$ns3::WifiNetDevice/Phy/State/RxOk ns3::WifiMacHeader (CTL_ACK Duration/ID=0us, RA=00:00:00:00:00:0a) ns3::WifiMacTrailer ()
r 0.000537 /NodeList/1/DeviceList/1/$ns3::WifiNetDevice/Phy/State/RxOk ns3::WifiMacHeader (CTL_ACK Duration/ID=0us, RA=00:00:00:00:00:0a) ns3::WifiMacTrailer ()
r 0.000552 /NodeList/2/DeviceList/0/$ns3::WifiNetDevice/Phy/State/RxOk ns3::WifiMacHeader (MGT_ASSOCIATION_REQUEST ToDS=0, FromDS=0, MoreFrag=0, Retry=0, MoreData=0 Duration/ID=60us, DA=00:00:00:00:00:06, SA=00:00:00:00:00:04, BSSID=00:00:00:00:00:06, FragNumber=0, SeqNumber=0) ns3::MgtAssocRequestHeader (ssid=ns-3-ssid1, rates=[6mbs 9mbs 12mbs 18mbs 24mbs 36mbs 48mbs 54mbs], HT Capabilities=0|0|0|0) ns3::WifiMacTrailer ()
r 0.000552 /NodeList/4/DeviceList/0/$ns3::WifiNetDevice/Phy/State/RxOk ns3::WifiMacHeader (MGT_ASSOCIATION_REQUEST ToDS=0, FromDS=0, MoreFrag=0, Retry=0, MoreData=0 Duration/ID=60us, DA=00:00:00:00:00:06, SA=00:00:00:00:00:04, BSSID=00:00:00:00:00:06, FragNumber=0, SeqNumber=0) ns3::MgtAssocRequestHeader (ssid=ns-3-ssid1, rates=[6mbs 9mbs 12mbs 18mbs 24mbs 36mbs 48mbs 54mbs], HT Capabilities=0|0|0|0) ns3::WifiMacTrailer ()
r 0.000552 /NodeList/0/DeviceList/1/$ns3::WifiNetDevice/Phy/State/RxOk ns3::WifiMacHeader (MGT_ASSOCIATION_REQUEST ToDS=0, FromDS=0, MoreFrag=0, Retry=0, MoreData=0 Duration/ID=60us, DA=00:00:00:00:00:06, SA=00:00:00:00:00:04, BSSID=00:00:00:00:00:06, FragNumber=0, SeqNumber=0) ns3::MgtAssocRequestHeader (ssid=ns-3-ssid1, rates=[6mbs 9mbs 12mbs 18mbs 24mbs 36mbs 48mbs 54mbs], HT Capabilities=0|0|0|0) ns3::WifiMacTrailer ()
t 0.000568 /NodeList/0/DeviceList/1/$ns3::WifiNetDevice/Phy/State/Tx ns3::WifiMacHeader (CTL_ACK Duration/ID=0us, RA=00:00:00:00:00:04) ns3::WifiMacTrailer ()
t 0.00058 /NodeList/6/DeviceList/0/$ns3::WifiNetDevice/Phy/State/Tx ns3::WifiMacHeader (MGT_ASSOCIATION_REQUEST ToDS=0, FromDS=0, MoreFrag=0, Retry=0, MoreData=0 Duration/ID=60us, DA=00:00:00:00:00:0a, SA=00:00:00:00:00:08, BSSID=00:00:00:00:00:0a, FragNumber=0, SeqNumber=0) ns3::MgtAssocRequestHeader (ssid=ns-3-ssid2, rates=[6mbs 9mbs 12mbs 18mbs 24mbs 36mbs 48mbs 54mbs], HT Capabilities=0|0|0|0) ns3::WifiMacTrailer ()
r 0.000612 /NodeList/2/DeviceList/0/$ns3::WifiNetDevice/Phy/State/RxOk ns3::WifiMacHeader (CTL_ACK Duration/ID=0us, RA=00:00:00:00:00:04) ns3::WifiMacTrailer ()
r 0.000612 /NodeList/3/DeviceList/0/$ns3::WifiNetDevice/Phy/State/RxOk ns3::WifiMacHeader (CTL_ACK Duration/ID=0us, RA=00:00:00:00:00:04) ns3::WifiMacTrailer ()
r 0.000612 /NodeList/4/DeviceList/0/$ns3::WifiNetDevice/Phy/State/RxOk ns3::WifiMacHeader (CTL_ACK Duration/ID=0us, RA=00:00:00:00:00:04) ns3::WifiMacTrailer ()
t 0.000664 /NodeList/2/DeviceList/0/$ns3::WifiNetDevice/Phy/State/Tx ns3::WifiMacHeader (MGT_ASSOCIATION_REQUEST ToDS=0, FromDS=0, MoreFrag=0, Retry=0, MoreData=0 Duration/ID=60us, DA=00:00:00:00:00:06, SA=00:00:00:00:00:03, BSSID=00:00:00:00:00:06, FragNumber=0, SeqNumber=0) ns3::MgtAssocRequestHeader (ssid=ns-3-ssid1, rates=[6mbs 9mbs 12mbs 18mbs 24mbs 36mbs 48mbs 54mbs], HT Capabilities=0|0|0|0) ns3::WifiMacTrailer ()
r 0.000676 /NodeList/5/DeviceList/0/$ns3::WifiNetDevice/Phy/State/RxOk ns3::WifiMacHeader (MGT_ASSOCIATION_REQUEST ToDS=0, FromDS=0, MoreFrag=0, Retry=0, MoreData=0 Duration/ID=60us, DA=00:00:00:00:00:0a, SA=00:00:00:00:00:08, BSSID=00:00:00:00:00:0a, FragNumber=0, SeqNumber=0) ns3::MgtAssocRequestHeader (ssid=ns-3-ssid2, rates=[6mbs 9mbs 12mbs 18mbs 24mbs 36mbs 48mbs 54mbs], HT Capabilities=0|0|0|0) ns3::WifiMacTrailer ()
r 0.000676 /NodeList/7/DeviceList/0/$ns3::WifiNetDevice/Phy/State/RxOk ns3::WifiMacHeader (MGT_ASSOCIATION_REQUEST ToDS=0, FromDS=0, MoreFrag=0, Retry=0, MoreData=0 Duration/ID=60us, DA=00:00:00:00:00:0a, SA=00:00:00:00:00:08, BSSID=00:00:00:00:00:0a, FragNumber=0, SeqNumber=0) ns3::MgtAssocRequestHeader (ssid=ns-3-ssid2, rates=[6mbs 9mbs 12mbs 18mbs 24mbs 36mbs 48mbs 54mbs], HT Capabilities=0|0|0|0) ns3::WifiMacTrailer ()
r 0.000676 /NodeList/1/DeviceList/1/$ns3::WifiNetDevice/Phy/State/RxOk ns3::WifiMacHeader (MGT_ASSOCIATION_REQUEST ToDS=0, FromDS=0, MoreFrag=0, Retry=0, MoreData=0 Duration/ID=60us, DA=00:00:00:00:00:0a, SA=00:00:00:00:00:08, BSSID=00:00:00:00:00:0a, FragNumber=0, SeqNumber=0) ns3::MgtAssocRequestHeader (ssid=ns-3-ssid2, rates=[6mbs 9mbs 12mbs 18mbs 24mbs 36mbs 48mbs 54mbs], HT Capabilities=0|0|0|0) ns3::WifiMacTrailer ()
t 0.000692 /NodeList/1/DeviceList/1/$ns3::WifiNetDevice/Phy/State/Tx ns3::WifiMacHeader (CTL_ACK Duration/ID=0us, RA=00:00:00:00:00:08) ns3::WifiMacTrailer ()
r 0.000736 /NodeList/5/DeviceList/0/$ns3::WifiNetDevice/Phy/State/RxOk ns3::WifiMacHeader (CTL_ACK Duration/ID=0us, RA=00:00:00:00:00:08) ns3::WifiMacTrailer ()
r 0.000736 /NodeList/6/DeviceList/0/$ns3::WifiNetDevice/Phy/State/RxOk ns3::WifiMacHeader (CTL_ACK Duration/ID=0us, RA=00:00:00:00:00:08) ns3::WifiMacTrailer ()
r 0.000736 /NodeList/7/DeviceList/0/$ns3::WifiNetDevice/Phy/State/RxOk ns3::WifiMacHeader (CTL_ACK Duration/ID=0us, RA=00:00:00:00:00:08) ns3::WifiMacTrailer ()
r 0.00076 /NodeList/3/DeviceList/0/$ns3::WifiNetDevice/Phy/State/RxOk ns3::WifiMacHeader (MGT_ASSOCIATION_REQUEST ToDS=0, FromDS=0, MoreFrag=0, Retry=0, MoreData=0 Duration/ID=60us, DA=00:00:00:00:00:06, SA=00:00:00:00:00:03, BSSID=00:00:00:00:00:06, FragNumber=0, SeqNumber=0) ns3::MgtAssocRequestHeader (ssid=ns-3-ssid1, rates=[6mbs 9mbs 12mbs 18mbs 24mbs 36mbs 48mbs 54mbs], HT Capabilities=0|0|0|0) ns3::WifiMacTrailer ()
r 0.00076 /NodeList/4/DeviceList/0/$ns3::WifiNetDevice/Phy/State/RxOk ns3::WifiMacHeader (MGT_ASSOCIATION_REQUEST ToDS=0, FromDS=0, MoreFrag=0, Retry=0, MoreData=0 Duration/ID=60us, DA=00:00:00:00:00:06, SA=00:00:00:00:00:03, BSSID=00:00:00:00:00:06, FragNumber=0, SeqNumber=0) ns3::MgtAssocRequestHeader (ssid=ns-3-ssid1, rates=[6mbs 9mbs 12mbs 18mbs 24mbs 36mbs 48mbs 54mbs], HT Capabilities=0|0|0|0) ns3::WifiMacTrailer ()
r 0.00076 /NodeList/0/DeviceList/1/$ns3::WifiNetDevice/Phy/State/RxOk ns3::WifiMacHeader (MGT_ASSOCIATION_REQUEST ToDS=0, FromDS=0, MoreFrag=0, Retry=0, MoreData=0 Duration/ID=60us, DA=00:00:00:00:00:06, SA=00:00:00:00:00:03, BSSID=00:00:00:00:00:06, FragNumber=0, SeqNumber=0) ns3::MgtAssocRequestHeader (ssid=ns-3-ssid1, rates=[6mbs 9mbs 12mbs 18mbs 24mbs 36mbs 48mbs 54mbs], HT Capabilities=0|0|0|0) ns3::WifiMacTrailer ()
t 0.000776 /NodeList/0/DeviceList/1/$ns3::WifiNetDevice/Phy/State/Tx ns3::WifiMacHeader (CTL_ACK Duration/ID=0us, RA=00:00:00:00:00:03) ns3::WifiMacTrailer ()
r 0.00082 /NodeList/2/DeviceList/0/$ns3::WifiNetDevice/Phy/State/RxOk ns3::WifiMacHeader (CTL_ACK Duration/ID=0us, RA=00:00:00:00:00:03) ns3::WifiMacTrailer ()
r 0.00082 /NodeList/3/DeviceList/0/$ns3::WifiNetDevice/Phy/State/RxOk ns3::WifiMacHeader (CTL_ACK Duration/ID=0us, RA=00:00:00:00:00:03) ns3::WifiMacTrailer ()
r 0.00082 /NodeList/4/DeviceList/0/$ns3::WifiNetDevice/Phy/State/RxOk ns3::WifiMacHeader (CTL_ACK Duration/ID=0us, RA=00:00:00:00:00:03) ns3::WifiMacTrailer ()
t 0.000824 /NodeList/5/DeviceList/0/$ns3::WifiNetDevice/Phy/State/Tx ns3::WifiMacHeader (MGT_ASSOCIATION_REQUEST ToDS=0, FromDS=0, MoreFrag=0, Retry=0, MoreData=0 Duration/ID=60us, DA=00:00:00:00:00:0a, SA=00:00:00:00:00:07, BSSID=00:00:00:00:00:0a, FragNumber=0, SeqNumber=0) ns3::MgtAssocRequestHeader (ssid=ns-3-ssid2, rates=[6mbs 9mbs 12mbs 18mbs 24mbs 36mbs 48mbs 54mbs], HT Capabilities=0|0|0|0) ns3::WifiMacTrailer ()
t 0.000863 /NodeList/0/DeviceList/1/$ns3::WifiNetDevice/Phy/State/Tx ns3::WifiMacHeader (MGT_ASSOCIATION_RESPONSE ToDS=0, FromDS=0, MoreFrag=0, Retry=0, MoreData=0 Duration/ID=60us, DA=00:00:00:00:00:05, SA=00:00:00:00:00:06, BSSID=00:00:00:00:00:06, FragNumber=0, SeqNumber=1) ns3::MgtAssocResponseHeader (status code=success, rates=[*6mbs 9mbs 12mbs 18mbs 24mbs 36mbs 48mbs 54mbs], HT Capabilities=0|0|0|0) ns3::WifiMacTrailer ()
r 0.00092 /NodeList/6/DeviceList/0/$ns3::WifiNetDevice/Phy/State/RxOk ns3::WifiMacHeader (MGT_ASSOCIATION_REQUEST ToDS=0, FromDS=0, MoreFrag=0, Retry=0, MoreData=0 Duration/ID=60us, DA=00:00:00:00:00:0a, SA=00:00:00:00:00:07, BSSID=00:00:00:00:00:0a, FragNumber=0, SeqNumber=0) ns3::MgtAssocRequestHeader (ssid=ns-3-ssid2, rates=[6mbs 9mbs 12mbs 18mbs 24mbs 36mbs 48mbs 54mbs], HT Capabilities=0|0|0|0) ns3::WifiMacTrailer ()
r 0.00092 /NodeList/7/DeviceList/0/$ns3::WifiNetDevice/Phy/State/RxOk ns3::WifiMacHeader (MGT_ASSOCIATION_REQUEST ToDS=0, FromDS=0, MoreFrag=0, Retry=0, MoreData=0 Duration/ID=60us, DA=00:00:00:00:00:0a, SA=00:00:00:00:00:07, BSSID=00:00:00:00:00:0a, FragNumber=0, SeqNumber=0) ns3::MgtAssocRequestHeader (ssid=ns-3-ssid2, rates=[6mbs 9mbs 12mbs 18mbs 24mbs 36mbs 48mbs 54mbs], HT Capabilities=0|0|0|0) ns3::WifiMacTrailer ()
r 0.00092 /NodeList/1/DeviceList/1/$ns3::WifiNetDevice/Phy/State/RxOk ns3::WifiMacHeader (MGT_ASSOCIATION_REQUEST ToDS=0, FromDS=0, MoreFrag=0, Retry=0, MoreData=0 Duration/ID=60us, DA=00:00:00:00:00:0a, SA=00:00:00:00:00:07, BSSID=00:00:00:00:00:0a, FragNumber=0, SeqNumber=0) ns3::MgtAssocRequestHeader (ssid=ns-3-ssid2, rates=[6mbs 9mbs 12mbs 18mbs 24mbs 36mbs 48mbs 54mbs], HT Capabilities=0|0|0|0) ns3::WifiMacTrailer ()
t 0.000936 /NodeList/1/DeviceList/1/$ns3::WifiNetDevice/Phy/State/Tx ns3::WifiMacHeader (CTL_ACK Duration/ID=0us, RA=00:00:00:00:00:07) ns3::WifiMacTrailer ()
r 0.000947 /NodeList/2/DeviceList/0/$ns3::WifiNetDevice/Phy/State/RxOk ns3::WifiMacHeader (MGT_ASSOCIATION_RESPONSE ToDS=0, FromDS=0, MoreFrag=0, Retry=0, MoreData=0 Duration/ID=60us, DA=00:00:00:00:00:05, SA=00:00:00:00:00:06, BSSID=00:00:00:00:00:06, FragNumber=0, SeqNumber=1) ns3::MgtAssocResponseHeader (status code=success, rates=[*6mbs 9mbs 12mbs 18mbs 24mbs 36mbs 48mbs 54mbs], HT Capabilities=0|0|0|0) ns3::WifiMacTrailer ()
r 0.000947 /NodeList/3/DeviceList/0/$ns3::WifiNetDevice/Phy/State/RxOk ns3::WifiMacHeader (MGT_ASSOCIATION_RESPONSE ToDS=0, FromDS=0, MoreFrag=0, Retry=0, MoreData=0 Duration/ID=60us, DA=00:00:00:00:00:05, SA=00:00:00:00:00:06, BSSID=00:00:00:00:00:06, FragNumber=0, SeqNumber=1) ns3::MgtAssocResponseHeader (status code=success, rates=[*6mbs 9mbs 12mbs 18mbs 24mbs 36mbs 48mbs 54mbs], HT Capabilities=0|0|0|0) ns3::WifiMacTrailer ()
r 0.000947 /NodeList/4/DeviceList/0/$ns3::WifiNetDevice/Phy/State/RxOk ns3::WifiMacHeader (MGT_ASSOCIATION_RESPONSE ToDS=0, FromDS=0, MoreFrag=0, Retry=0, MoreData=0 Duration/ID=60us, DA=00:00:00:00:00:05, SA=00:00:00:00:00:06, BSSID=00:00:00:00:00:06, FragNumber=0, SeqNumber=1) ns3::MgtAssocResponseHeader (status code=success, rates=[*6mbs 9mbs 12mbs 18mbs 24mbs 36mbs 48mbs 54mbs], HT Capabilities=0|0|0|0) ns3::WifiMacTrailer ()
t 0.000963 /NodeList/4/DeviceList/0/$ns3::WifiNetDevice/Phy/State/Tx ns3::WifiMacHeader (CTL_ACK Duration/ID=0us, RA=00:00:00:00:00:06) ns3::WifiMacTrailer ()
r 0.00098 /NodeList/5/DeviceList/0/$ns3::WifiNetDevice/Phy/State/RxOk ns3::WifiMacHeader (CTL_ACK Duration/ID=0us, RA=00:00:00:00:00:07) ns3::WifiMacTrailer ()
r 0.00098 /NodeList/6/DeviceList/0/$ns3::WifiNetDevice/Phy/State/RxOk ns3::WifiMacHeader (CTL_ACK Duration/ID=0us, RA=00:00:00:00:00:07) ns3::WifiMacTrailer ()
r 0.00098 /NodeList/7/DeviceList/0/$ns3::WifiNetDevice/Phy/State/RxOk ns3::WifiMacHeader (CTL_ACK Duration/ID=0us, RA=00:00:00:00:00:07) ns3::WifiMacTrailer ()
r 0.001007 /NodeList/2/DeviceList/0/$ns3::WifiNetDevice/Phy/State/RxOk ns3::WifiMacHeader (CTL_ACK Duration/ID=0us, RA=00:00:00:00:00:06) ns3::WifiMacTrailer ()
r 0.001007 /NodeList/3/DeviceList/0/$ns3::WifiNetDevice/Phy/State/RxOk ns3::WifiMacHeader (CTL_ACK Duration/ID=0us, RA=00:00:00:00:00:06) ns3::WifiMacTrailer ()
r 0.001007 /NodeList/0/DeviceList/1/$ns3::WifiNetDevice/Phy/State/RxOk ns3::WifiMacHeader (CTL_ACK Duration/ID=0us, RA=00:00:00:00:00:06) ns3::WifiMacTrailer ()
t 0.00105 /NodeList/1/DeviceList/1/$ns3::WifiNetDevice/Phy/State/Tx ns3::WifiMacHeader (MGT_ASSOCIATION_RESPONSE ToDS=0, FromDS=0, MoreFrag=0, Retry=0, MoreData=0 Duration/ID=60us, DA=00:00:00:00:00:08, SA=00:00:00:00:00:0a, BSSID=00:00:00:00:00:0a, FragNumber=0, SeqNumber=2) ns3::MgtAssocResponseHeader (status code=success, rates=[*6mbs 9mbs 12mbs 18mbs 24mbs 36mbs 48mbs 54mbs], HT Capabilities=0|0|0|0) ns3::WifiMacTrailer ()
r 0.001134 /NodeList/5/DeviceList/0/$ns3::WifiNetDevice/Phy/State/RxOk ns3::WifiMacHeader (MGT_ASSOCIATION_RESPONSE ToDS=0, FromDS=0, MoreFrag=0, Retry=0, MoreData=0 Duration/ID=60us, DA=00:00:00:00:00:08, SA=00:00:00:00:00:0a, BSSID=00:00:00:00:00:0a, FragNumber=0, SeqNumber=2) ns3::MgtAssocResponseHeader (status code=success, rates=[*6mbs 9mbs 12mbs 18mbs 24mbs 36mbs 48mbs 54mbs], HT Capabilities=0|0|0|0) ns3::WifiMacTrailer ()
r 0.001134 /NodeList/6/DeviceList/0/$ns3::WifiNetDevice/Phy/State/RxOk ns3::WifiMacHeader (MGT_ASSOCIATION_RESPONSE ToDS=0, FromDS=0, MoreFrag=0, Retry=0, MoreData=0 Duration/ID=60us, DA=00:00:00:00:00:08, SA=00:00:00:00:00:0a, BSSID=00:00:00:00:00:0a, FragNumber=0, SeqNumber=2) ns3::MgtAssocResponseHeader (status code=success, rates=[*6mbs 9mbs 12mbs 18mbs 24mbs 36mbs 48mbs 54mbs], HT Capabilities=0|0|0|0) ns3::WifiMacTrailer ()
r 0.001134 /NodeList/7/DeviceList/0/$ns3::WifiNetDevice/Phy/State/RxOk ns3::WifiMacHeader (MGT_ASSOCIATION_RESPONSE ToDS=0, FromDS=0, MoreFrag=0, Retry=0, MoreData=0 Duration/ID=60us, DA=00:00:00:00:00:08, SA=00:00:00:00:00:0a, BSSID=00:00:00:00:00:0a, FragNumber=0, SeqNumber=2) ns3::MgtAssocResponseHeader (status code=success, rates=[*6mbs 9mbs 12mbs 18mbs 24mbs 36mbs 48mbs 54mbs], HT Capabilities=0|0|0|0) ns3::WifiMacTrailer ()
t 0.00115 /NodeList/6/DeviceList/0/$ns3::WifiNetDevice/Phy/State/Tx ns3::WifiMacHeader (CTL_ACK Duration/ID=0us, RA=00:00:00:00:00:0a) ns3::WifiMacTrailer ()
t 0.001167 /NodeList/0/DeviceList/1/$ns3::WifiNetDevice/Phy/State/Tx ns3::WifiMacHeader (MGT_ASSOCIATION_RESPONSE ToDS=0, FromDS=0, MoreFrag=0, Retry=0, MoreData=0 Duration/ID=60us, DA=00:00:00:00:00:04, SA=00:00:00:00:00:06, BSSID=00:00:00:00:00:06, FragNumber=0, SeqNumber=2) ns3::MgtAssocResponseHeader (status code=success, rates=[*6mbs 9mbs 12mbs 18mbs 24mbs 36mbs 48mbs 54mbs], HT Capabilities=0|0|0|0) ns3::WifiMacTrailer ()
r 0.001194 /NodeList/5/DeviceList/0/$ns3::WifiNetDevice/Phy/State/RxOk ns3::WifiMacHeader (CTL_ACK Duration/ID=0us, RA=00:00:00:00:00:0a) ns3::WifiMacTrailer ()
r 0.001194 /NodeList/7/DeviceList/0/$ns3::WifiNetDevice/Phy/State/RxOk ns3::WifiMacHeader (CTL_ACK Duration/ID=0us, RA=00:00:00:00:00:0a) ns3::WifiMacTrailer ()
r 0.001194 /NodeList/1/DeviceList/1/$ns3::WifiNetDevice/Phy/State/RxOk ns3::WifiMacHeader (CTL_ACK Duration/ID=0us, RA=00:00:00:00:00:0a) ns3::WifiMacTrailer ()
r 0.001251 /NodeList/2/DeviceList/0/$ns3::WifiNetDevice/Phy/State/RxOk ns3::WifiMacHeader (MGT_ASSOCIATION_RESPONSE ToDS=0, FromDS=0, MoreFrag=0, Retry=0, MoreData=0 Duration/ID=60us, DA=00:00:00:00:00:04, SA=00:00:00:00:00:06, BSSID=00:00:00:00:00:06, FragNumber=0, SeqNumber=2) ns3::MgtAssocResponseHeader (status code=success, rates=[*6mbs 9mbs 12mbs 18mbs 24mbs 36mbs 48mbs 54mbs], HT Capabilities=0|0|0|0) ns3::WifiMacTrailer ()
r 0.001251 /NodeList/3/DeviceList/0/$ns3::WifiNetDevice/Phy/State/RxOk ns3::WifiMacHeader (MGT_ASSOCIATION_RESPONSE ToDS=0, FromDS=0, MoreFrag=0, Retry=0, MoreData=0 Duration/ID=60us, DA=00:00:00:00:00:04, SA=00:00:00:00:00:06, BSSID=00:00:00:00:00:06, FragNumber=0, SeqNumber=2) ns3::MgtAssocResponseHeader (status code=success, rates=[*6mbs 9mbs 12mbs 18mbs 24mbs 36mbs 48mbs 54mbs], HT Capabilities=0|0|0|0) ns3::WifiMacTrailer ()
r 0.001251 /NodeList/4/DeviceList/0/$ns3::WifiNetDevice/Phy/State/RxOk ns3::WifiMacHeader (MGT_ASSOCIATION_RESPONSE ToDS=0, FromDS=0, MoreFrag=0, Retry=0, MoreData=0 Duration/ID=60us, DA=00:00:00:00:00:04, SA=00:00:00:00:00:06, BSSID=00:00:00:00:00:06, FragNumber=0, SeqNumber=2) ns3::MgtAssocResponseHeader (status code=success, rates=[*6mbs 9mbs 12mbs 18mbs 24mbs 36mbs 48mbs 54mbs], HT Capabilities=0|0|0|0) ns3::WifiMacTrailer ()
t 0.001267 /NodeList/3/DeviceList/0/$ns3::WifiNetDevice/Phy/State/Tx ns3::WifiMacHeader (CTL_ACK Duration/ID=0us, RA=00:00:00:00:00:06) ns3::WifiMacTrailer ()
t 0.001282 /NodeList/1/DeviceList/1/$ns3::WifiNetDevice/Phy/State/Tx ns3::WifiMacHeader (MGT_ASSOCIATION_RESPONSE ToDS=0, FromDS=0, MoreFrag=0, Retry=0, MoreData=0 Duration/ID=60us, DA=00:00:00:00:00:07, SA=00:00:00:00:00:0a, BSSID=00:00:00:00:00:0a, FragNumber=0, SeqNumber=3) ns3::MgtAssocResponseHeader (status code=success, rates=[*6mbs 9mbs 12mbs 18mbs 24mbs 36mbs 48mbs 54mbs], HT Capabilities=0|0|0|0) ns3::WifiMacTrailer ()
r 0.001311 /NodeList/2/DeviceList/0/$ns3::WifiNetDevice/Phy/State/RxOk ns3::WifiMacHeader (CTL_ACK Duration/ID=0us, RA=00:00:00:00:00:06) ns3::WifiMacTrailer ()
r 0.001311 /NodeList/4/DeviceList/0/$ns3::WifiNetDevice/Phy/State/RxOk ns3::WifiMacHeader (CTL_ACK Duration/ID=0us, RA=00:00:00:00:00:06) ns3::WifiMacTrailer ()
r 0.001311 /NodeList/0/DeviceList/1/$ns3::WifiNetDevice/Phy/State/RxOk ns3::WifiMacHeader (CTL_ACK Duration/ID=0us, RA=00:00:00:00:00:06) ns3::WifiMacTrailer ()
r 0.001366 /NodeList/5/DeviceList/0/$ns3::WifiNetDevice/Phy/State/RxOk ns3::WifiMacHeader (MGT_ASSOCIATION_RESPONSE ToDS=0, FromDS=0, MoreFrag=0, Retry=0, MoreData=0 Duration/ID=60us, DA=00:00:00:00:00:07, SA=00:00:00:00:00:0a, BSSID=00:00:00:00:00:0a, FragNumber=0, SeqNumber=3) ns3::MgtAssocResponseHeader (status code=success, rates=[*6mbs 9mbs 12mbs 18mbs 24mbs 36mbs 48mbs 54mbs], HT Capabilities=0|0|0|0) ns3::WifiMacTrailer ()
r 0.001366 /NodeList/6/DeviceList/0/$ns3::WifiNetDevice/Phy/State/RxOk ns3::WifiMacHeader (MGT_ASSOCIATION_RESPONSE ToDS=0, FromDS=0, MoreFrag=0, Retry=0, MoreData=0 Duration/ID=60us, DA=00:00:00:00:00:07, SA=00:00:00:00:00:0a, BSSID=00:00:00:00:00:0a, FragNumber=0, SeqNumber=3) ns3::MgtAssocResponseHeader (status code=success, rates=[*6mbs 9mbs 12mbs 18mbs 24mbs 36mbs 48mbs 54mbs], HT Capabilities=0|0|0|0) ns3::WifiMacTrailer ()
r 0.001366 /NodeList/7/DeviceList/0/$ns3::WifiNetDevice/Phy/State/RxOk ns3::WifiMacHeader (MGT_ASSOCIATION_RESPONSE ToDS=0, FromDS=0, MoreFrag=0, Retry=0, MoreData=0 Duration/ID=60us, DA=00:00:00:00:00:07, SA=00:00:00:00:00:0a, BSSID=00:00:00:00:00:0a, FragNumber=0, SeqNumber=3) ns3::MgtAssocResponseHeader (status code=success, rates=[*6mbs 9mbs 12mbs 18mbs 24mbs 36mbs 48mbs 54mbs], HT Capabilities=0|0|0|0) ns3::WifiMacTrailer ()
t 0.001381 /NodeList/0/DeviceList/1/$ns3::WifiNetDevice/Phy/State/Tx ns3::WifiMacHeader (MGT_ASSOCIATION_RESPONSE ToDS=0, FromDS=0, MoreFrag=0, Retry=0, MoreData=0 Duration/ID=60us, DA=00:00:00:00:00:03, SA=00:00:00:00:00:06, BSSID=00:00:00:00:00:06, FragNumber=0, SeqNumber=3) ns3::MgtAssocResponseHeader (status code=success, rates=[*6mbs 9mbs 12mbs 18mbs 24mbs 36mbs 48mbs 54mbs], HT Capabilities=0|0|0|0) ns3::WifiMacTrailer ()
t 0.001382 /NodeList/5/DeviceList/0/$ns3::WifiNetDevice/Phy/State/Tx ns3::WifiMacHeader (CTL_ACK Duration/ID=0us, RA=00:00:00:00:00:0a) ns3::WifiMacTrailer ()
r 0.001426 /NodeList/6/DeviceList/0/$ns3::WifiNetDevice/Phy/State/RxOk ns3::WifiMacHeader (CTL_ACK Duration/ID=0us, RA=00:00:00:00:00:0a) ns3::WifiMacTrailer ()
r 0.001426 /NodeList/7/DeviceList/0/$ns3::WifiNetDevice/Phy/State/RxOk ns3::WifiMacHeader (CTL_ACK Duration/ID=0us, RA=00:00:00:00:00:0a) ns3::WifiMacTrailer ()
r 0.001426 /NodeList/1/DeviceList/1/$ns3::WifiNetDevice/Phy/State/RxOk ns3::WifiMacHeader (CTL_ACK Duration/ID=0us, RA=00:00:00:00:00:0a) ns3::WifiMacTrailer ()